<?xml version="1.0" encoding="UTF-8"?>

<!-- generated on 2022-12-19 13:51:01 by Eclipse SUMO sumo Version 1.15.0
<configuration xmlns:xsi="http://www.w3.org/2001/XMLSchema-instance" xsi:noNamespaceSchemaLocation="http://sumo.dlr.de/xsd/sumoConfiguration.xsd">

    <input>
        <net-file value="sample_test.net.xml"/>
        <route-files value="sample_test.rou.xml"/>
    </input>

    <output>
        <emission-output value="emission_file.xml"/>
    </output>

    <time>
        <begin value="0"/>
        <end value="20000"/>
    </time>

</configuration>
-->

<emission-export xmlns:xsi="http://www.w3.org/2001/XMLSchema-instance" xsi:noNamespaceSchemaLocation="http://sumo.dlr.de/xsd/emission_file.xsd">
    <timestep time="0.00"/>
    <timestep time="1.00">
        <vehicle id="1" eclass="HBEFA3/PC_G_EU4" CO2="2624.72" CO="164.78" HC="0.81" NOx="1.20" PMx="0.07" fuel="837.22" electricity="0.00" noise="55.94" route="!1" type="DEFAULT_VEHTYPE" waiting="0.00" lane="-26215863#3_0" pos="5.10" speed="0.00" angle="95.16" x="1495.47" y="409.39"/>
    </timestep>
    <timestep time="2.00">
        <vehicle id="1" eclass="HBEFA3/PC_G_EU4" CO2="3986.94" CO="151.14" HC="0.78" NOx="1.78" PMx="0.09" fuel="1271.68" electricity="0.00" noise="67.94" route="!1" type="DEFAULT_VEHTYPE" waiting="0.00" lane="-26215863#3_0" pos="7.61" speed="2.51" angle="95.16" x="1497.97" y="409.17"/>
        <vehicle id="2" eclass="HBEFA3/PC_G_EU4" CO2="2624.72" CO="164.78" HC="0.81" NOx="1.20" PMx="0.07" fuel="837.22" electricity="0.00" noise="55.94" route="!2" type="DEFAULT_VEHTYPE" waiting="0.00" lane="26215165#6_0" pos="5.10" speed="0.00" angle="11.95" x="1168.25" y="389.84"/>
    </timestep>
    <timestep time="3.00">
        <vehicle id="1" eclass="HBEFA3/PC_G_EU4" CO2="4745.36" CO="135.63" HC="0.73" NOx="2.08" PMx="0.10" fuel="1513.57" electricity="0.00" noise="67.11" route="!1" type="DEFAULT_VEHTYPE" waiting="0.00" lane="-26215863#3_0" pos="12.23" speed="4.62" angle="95.16" x="1502.57" y="408.75"/>
        <vehicle id="2" eclass="HBEFA3/PC_G_EU4" CO2="2912.48" CO="148.35" HC="0.74" NOx="1.30" PMx="0.07" fuel="928.99" electricity="0.00" noise="62.18" route="!2" type="DEFAULT_VEHTYPE" waiting="0.00" lane="26215165#6_0" pos="6.40" speed="1.30" angle="11.95" x="1168.52" y="391.12"/>
        <vehicle id="3" eclass="HBEFA3/PC_G_EU4" CO2="2624.72" CO="164.78" HC="0.81" NOx="1.20" PMx="0.07" fuel="837.22" electricity="0.00" noise="55.94" route="!3" type="DEFAULT_VEHTYPE" waiting="0.00" lane="314249085_0" pos="5.10" speed="0.00" angle="102.59" x="1200.85" y="608.79"/>
    </timestep>
    <timestep time="4.00">
        <vehicle id="1" eclass="HBEFA3/PC_G_EU4" CO2="4210.78" CO="106.89" HC="0.58" NOx="1.79" PMx="0.08" fuel="1343.06" electricity="0.00" noise="64.37" route="!1" type="DEFAULT_VEHTYPE" waiting="0.00" lane="-26215863#3_0" pos="18.19" speed="5.96" angle="95.16" x="1508.51" y="408.21"/>
        <vehicle id="2" eclass="HBEFA3/PC_G_EU4" CO2="3589.35" CO="135.94" HC="0.70" NOx="1.58" PMx="0.08" fuel="1144.87" electricity="0.00" noise="64.40" route="!2" type="DEFAULT_VEHTYPE" waiting="0.00" lane="26215165#6_0" pos="9.37" speed="2.96" angle="11.95" x="1169.13" y="394.01"/>
        <vehicle id="3" eclass="HBEFA3/PC_G_EU4" CO2="3831.58" CO="150.00" HC="0.77" NOx="1.71" PMx="0.08" fuel="1222.13" electricity="0.00" noise="67.31" route="!3" type="DEFAULT_VEHTYPE" waiting="0.00" lane="314249085_0" pos="7.48" speed="2.38" angle="102.59" x="1203.17" y="608.27"/>
        <vehicle id="4" eclass="HBEFA3/PC_G_EU4" CO2="2624.72" CO="164.78" HC="0.81" NOx="1.20" PMx="0.07" fuel="837.22" electricity="0.00" noise="55.94" route="!4" type="DEFAULT_VEHTYPE" waiting="0.00" lane="-443385814#2_0" pos="5.10" speed="0.00" angle="4.97" x="1012.17" y="1069.90"/>
    </timestep>
    <timestep time="5.00">
        <vehicle id="1" eclass="HBEFA3/PC_G_EU4" CO2="5311.44" CO="110.00" HC="0.63" NOx="2.27" PMx="0.10" fuel="1694.11" electricity="0.00" noise="66.37" route="!1" type="DEFAULT_VEHTYPE" waiting="0.00" lane="-26215863#3_0" pos="25.78" speed="7.59" angle="95.16" x="1516.07" y="407.53"/>
        <vehicle id="2" eclass="HBEFA3/PC_G_EU4" CO2="4705.82" CO="130.63" HC="0.71" NOx="2.05" PMx="0.10" fuel="1500.96" electricity="0.00" noise="66.60" route="!2" type="DEFAULT_VEHTYPE" waiting="0.00" lane="26215165#6_0" pos="14.30" speed="4.93" angle="10.17" x="1170.00" y="398.87"/>
        <vehicle id="3" eclass="HBEFA3/PC_G_EU4" CO2="4315.78" CO="131.80" HC="0.70" NOx="1.89" PMx="0.09" fuel="1376.56" electricity="0.00" noise="65.97" route="!3" type="DEFAULT_VEHTYPE" waiting="0.00" lane="314249085_0" pos="11.74" speed="4.27" angle="102.59" x="1207.33" y="607.34"/>
        <vehicle id="4" eclass="HBEFA3/PC_G_EU4" CO2="3230.99" CO="147.39" HC="0.75" NOx="1.44" PMx="0.07" fuel="1030.58" electricity="0.00" noise="64.37" route="!4" type="DEFAULT_VEHTYPE" waiting="0.00" lane="-443385814#2_0" pos="6.86" speed="1.76" angle="4.97" x="1012.32" y="1071.66"/>
        <vehicle id="5" eclass="HBEFA3/PC_G_EU4" CO2="2624.72" CO="164.78" HC="0.81" NOx="1.20" PMx="0.07" fuel="837.22" electricity="0.00" noise="55.94" route="!5" type="DEFAULT_VEHTYPE" waiting="0.00" lane="-26215163#2_0" pos="5.10" speed="0.00" angle="276.48" x="958.61" y="316.28"/>
    </timestep>
    <timestep time="6.00">
        <vehicle id="1" eclass="HBEFA3/PC_G_EU4" CO2="2106.17" CO="43.93" HC="0.25" NOx="0.75" PMx="0.02" fuel="671.80" electricity="0.00" noise="60.08" route="!1" type="DEFAULT_VEHTYPE" waiting="0.00" lane="-26215863#3_0" pos="33.38" speed="7.60" angle="95.16" x="1523.64" y="406.85"/>
        <vehicle id="2" eclass="HBEFA3/PC_G_EU4" CO2="5502.38" CO="122.70" HC="0.69" NOx="2.38" PMx="0.11" fuel="1755.01" electricity="0.00" noise="67.19" route="!2" type="DEFAULT_VEHTYPE" waiting="0.00" lane="26215165#6_0" pos="21.14" speed="6.84" angle="7.08" x="1170.88" y="405.65"/>
        <vehicle id="3" eclass="HBEFA3/PC_G_EU4" CO2="5541.33" CO="129.58" HC="0.72" NOx="2.41" PMx="0.11" fuel="1767.44" electricity="0.00" noise="67.68" route="!3" type="DEFAULT_VEHTYPE" waiting="0.00" lane="314249085_0" pos="18.08" speed="6.34" angle="102.58" x="1213.52" y="605.96"/>
        <vehicle id="4" eclass="HBEFA3/PC_G_EU4" CO2="4953.44" CO="145.28" HC="0.78" NOx="2.19" PMx="0.11" fuel="1579.94" electricity="0.00" noise="68.52" route="!4" type="DEFAULT_VEHTYPE" waiting="0.00" lane="-443385814#2_0" pos="11.10" speed="4.24" angle="4.97" x="1012.69" y="1075.88"/>
        <vehicle id="5" eclass="HBEFA3/PC_G_EU4" CO2="3689.72" CO="149.08" HC="0.77" NOx="1.65" PMx="0.08" fuel="1176.89" electricity="0.00" noise="66.69" route="!5" type="DEFAULT_VEHTYPE" waiting="0.00" lane="-26215163#2_0" pos="7.35" speed="2.25" angle="276.48" x="956.38" y="316.53"/>
        <vehicle id="6" eclass="HBEFA3/PC_G_EU4" CO2="2624.72" CO="164.78" HC="0.81" NOx="1.20" PMx="0.07" fuel="837.22" electricity="0.00" noise="55.94" route="!6" type="DEFAULT_VEHTYPE" waiting="0.00" lane="-144774339#4_0" pos="5.10" speed="0.00" angle="49.40" x="632.71" y="363.51"/>
    </timestep>
    <timestep time="7.00">
        <vehicle id="1" eclass="HBEFA3/PC_G_EU4" CO2="3691.88" CO="68.44" HC="0.40" NOx="1.48" PMx="0.06" fuel="1177.55" electricity="0.00" noise="63.20" route="!1" type="DEFAULT_VEHTYPE" waiting="0.00" lane="-26215863#3_0" pos="41.72" speed="8.34" angle="95.16" x="1531.94" y="406.10"/>
        <vehicle id="2" eclass="HBEFA3/PC_G_EU4" CO2="3787.49" CO="77.56" HC="0.44" NOx="1.55" PMx="0.06" fuel="1208.05" electricity="0.00" noise="63.25" route="!2" type="DEFAULT_VEHTYPE" waiting="0.00" lane="26215165#6_0" pos="28.82" speed="7.68" angle="0.08" x="1171.09" y="413.32"/>
        <vehicle id="3" eclass="HBEFA3/PC_G_EU4" CO2="5168.97" CO="104.22" HC="0.60" NOx="2.19" PMx="0.10" fuel="1648.67" electricity="0.00" noise="66.00" route="!3" type="DEFAULT_VEHTYPE" waiting="0.00" lane="314249085_0" pos="25.92" speed="7.84" angle="102.58" x="1221.17" y="604.25"/>
        <vehicle id="4" eclass="HBEFA3/PC_G_EU4" CO2="5281.89" CO="126.00" HC="0.70" NOx="2.29" PMx="0.11" fuel="1684.69" electricity="0.00" noise="67.11" route="!4" type="DEFAULT_VEHTYPE" waiting="0.00" lane="-443385814#2_0" pos="17.30" speed="6.20" angle="4.97" x="1013.23" y="1082.06"/>
        <vehicle id="5" eclass="HBEFA3/PC_G_EU4" CO2="4219.72" CO="132.02" HC="0.70" NOx="1.84" PMx="0.09" fuel="1345.92" electricity="0.00" noise="65.78" route="!5" type="DEFAULT_VEHTYPE" waiting="0.00" lane="-26215163#2_0" pos="11.46" speed="4.11" angle="276.48" x="952.29" y="316.99"/>
        <vehicle id="6" eclass="HBEFA3/PC_G_EU4" CO2="3427.30" CO="147.82" HC="0.75" NOx="1.53" PMx="0.08" fuel="1093.19" electricity="0.00" noise="65.45" route="!6" type="DEFAULT_VEHTYPE" waiting="0.00" lane="-144774339#4_0" pos="7.09" speed="1.99" angle="49.40" x="634.22" y="364.80"/>
    </timestep>
    <timestep time="8.00">
        <vehicle id="1" eclass="HBEFA3/PC_G_EU4" CO2="2143.14" CO="36.29" HC="0.21" NOx="0.75" PMx="0.02" fuel="683.59" electricity="0.00" noise="60.67" route="!1" type="DEFAULT_VEHTYPE" waiting="0.00" lane="-26215863#3_0" pos="50.08" speed="8.36" angle="95.16" x="1540.27" y="405.34"/>
        <vehicle id="2" eclass="HBEFA3/PC_G_EU4" CO2="0.00" CO="0.00" HC="0.00" NOx="0.00" PMx="0.00" fuel="0.00" electricity="0.00" noise="56.46" route="!2" type="DEFAULT_VEHTYPE" waiting="0.00" lane="26215165#6_0" pos="35.58" speed="6.76" angle="357.33" x="1170.81" y="420.07"/>
        <vehicle id="3" eclass="HBEFA3/PC_G_EU4" CO2="6013.49" CO="104.97" HC="0.62" NOx="2.55" PMx="0.12" fuel="1918.02" electricity="0.00" noise="67.15" route="!3" type="DEFAULT_VEHTYPE" waiting="0.00" lane="314249085_0" pos="35.36" speed="9.44" angle="102.58" x="1230.38" y="602.20"/>
        <vehicle id="4" eclass="HBEFA3/PC_G_EU4" CO2="7561.73" CO="145.00" HC="0.84" NOx="3.30" PMx="0.16" fuel="2411.83" electricity="0.00" noise="70.27" route="!4" type="DEFAULT_VEHTYPE" waiting="0.00" lane="-443385814#2_0" pos="25.93" speed="8.63" angle="4.97" x="1013.98" y="1090.65"/>
        <vehicle id="5" eclass="HBEFA3/PC_G_EU4" CO2="5208.96" CO="126.20" HC="0.70" NOx="2.26" PMx="0.11" fuel="1661.43" electricity="0.00" noise="67.03" route="!5" type="DEFAULT_VEHTYPE" waiting="0.00" lane="-26215163#2_0" pos="17.52" speed="6.06" angle="276.48" x="946.27" y="317.68"/>
        <vehicle id="6" eclass="HBEFA3/PC_G_EU4" CO2="3623.24" CO="128.87" HC="0.67" NOx="1.58" PMx="0.07" fuel="1155.68" electricity="0.00" noise="63.90" route="!6" type="DEFAULT_VEHTYPE" waiting="0.00" lane="-144774339#4_0" pos="10.57" speed="3.48" angle="49.40" x="636.86" y="367.07"/>
        <vehicle id="8" eclass="HBEFA3/PC_G_EU4" CO2="2624.72" CO="164.78" HC="0.81" NOx="1.20" PMx="0.07" fuel="837.22" electricity="0.00" noise="55.94" route="!8" type="DEFAULT_VEHTYPE" waiting="0.00" lane="-26215163#3_0" pos="5.10" speed="0.00" angle="263.94" x="1035.15" y="311.23"/>
    </timestep>
    <timestep time="9.00">
        <vehicle id="1" eclass="HBEFA3/PC_G_EU4" CO2="0.00" CO="0.00" HC="0.00" NOx="0.00" PMx="0.00" fuel="0.00" electricity="0.00" noise="57.57" route="!1" type="DEFAULT_VEHTYPE" waiting="0.00" lane="-26215863#3_0" pos="57.65" speed="7.57" angle="95.16" x="1547.81" y="404.66"/>
        <vehicle id="2" eclass="HBEFA3/PC_G_EU4" CO2="3415.02" CO="72.66" HC="0.41" NOx="1.38" PMx="0.05" fuel="1089.25" electricity="0.00" noise="62.46" route="!2" type="DEFAULT_VEHTYPE" waiting="0.00" lane=":319238687_0_0" pos="5.27" speed="7.44" angle="352.95" x="1169.94" y="427.46"/>
        <vehicle id="3" eclass="HBEFA3/PC_G_EU4" CO2="7317.26" CO="115.81" HC="0.70" NOx="3.12" PMx="0.15" fuel="2333.85" electricity="0.00" noise="68.77" route="!3" type="DEFAULT_VEHTYPE" waiting="0.00" lane="314249082#0_0" pos="1.39" speed="11.20" angle="116.91" x="1240.23" y="596.72"/>
        <vehicle id="4" eclass="HBEFA3/PC_G_EU4" CO2="0.00" CO="0.00" HC="0.00" NOx="0.00" PMx="0.00" fuel="0.00" electricity="0.00" noise="57.82" route="!4" type="DEFAULT_VEHTYPE" waiting="0.00" lane="-443385814#2_0" pos="33.77" speed="7.84" angle="4.97" x="1014.65" y="1098.46"/>
        <vehicle id="5" eclass="HBEFA3/PC_G_EU4" CO2="7699.40" CO="148.44" HC="0.86" NOx="3.37" PMx="0.16" fuel="2455.74" electricity="0.00" noise="70.58" route="!5" type="DEFAULT_VEHTYPE" waiting="0.00" lane="-26215163#2_0" pos="26.09" speed="8.57" angle="276.48" x="937.75" y="318.64"/>
        <vehicle id="6" eclass="HBEFA3/PC_G_EU4" CO2="5025.03" CO="129.74" HC="0.71" NOx="2.19" PMx="0.10" fuel="1602.77" electricity="0.00" noise="67.02" route="!6" type="DEFAULT_VEHTYPE" waiting="0.00" lane="-144774339#4_0" pos="16.06" speed="5.49" angle="49.40" x="641.03" y="370.64"/>
        <vehicle id="8" eclass="HBEFA3/PC_G_EU4" CO2="3089.80" CO="147.47" HC="0.74" NOx="1.38" PMx="0.07" fuel="985.55" electricity="0.00" noise="63.49" route="!8" type="DEFAULT_VEHTYPE" waiting="0.00" lane="-26215163#3_0" pos="6.68" speed="1.58" angle="264.25" x="1033.58" y="311.09"/>
        <vehicle id="9" eclass="HBEFA3/PC_G_EU4" CO2="2624.72" CO="164.78" HC="0.81" NOx="1.20" PMx="0.07" fuel="837.22" electricity="0.00" noise="55.94" route="!9" type="DEFAULT_VEHTYPE" waiting="0.00" lane="27201452#0_0" pos="5.10" speed="0.00" angle="112.12" x="1392.85" y="716.67"/>
    </timestep>
    <timestep time="10.00">
        <vehicle id="1" eclass="HBEFA3/PC_G_EU4" CO2="0.00" CO="0.00" HC="0.00" NOx="0.00" PMx="0.00" fuel="0.00" electricity="0.00" noise="48.71" route="!1" type="DEFAULT_VEHTYPE" waiting="0.00" lane="-26215863#3_0" pos="62.13" speed="4.49" angle="95.16" x="1552.28" y="404.26"/>
        <vehicle id="10" eclass="HBEFA3/PC_G_EU4" CO2="2624.72" CO="164.78" HC="0.81" NOx="1.20" PMx="0.07" fuel="837.22" electricity="0.00" noise="55.94" route="!10" type="DEFAULT_VEHTYPE" waiting="0.00" lane="27200967#3_0" pos="5.10" speed="0.00" angle="144.17" x="1534.30" y="1229.09"/>
        <vehicle id="2" eclass="HBEFA3/PC_G_EU4" CO2="0.00" CO="0.00" HC="0.00" NOx="0.00" PMx="0.00" fuel="0.00" electricity="0.00" noise="56.62" route="!2" type="DEFAULT_VEHTYPE" waiting="0.00" lane="26215165#7_0" pos="2.28" speed="6.62" angle="352.56" x="1169.10" y="434.02"/>
        <vehicle id="3" eclass="HBEFA3/PC_G_EU4" CO2="6530.39" CO="89.38" HC="0.56" NOx="2.72" PMx="0.12" fuel="2082.88" electricity="0.00" noise="67.74" route="!3" type="DEFAULT_VEHTYPE" waiting="0.00" lane=":1348204345_2_0" pos="2.85" speed="12.52" angle="102.57" x="1252.44" y="593.99"/>
        <vehicle id="4" eclass="HBEFA3/PC_G_EU4" CO2="2079.70" CO="40.73" HC="0.23" NOx="0.74" PMx="0.02" fuel="663.35" electricity="0.00" noise="60.20" route="!4" type="DEFAULT_VEHTYPE" waiting="0.00" lane="-443385814#2_0" pos="41.60" speed="7.83" angle="4.97" x="1015.33" y="1106.27"/>
        <vehicle id="5" eclass="HBEFA3/PC_G_EU4" CO2="0.00" CO="0.00" HC="0.00" NOx="0.00" PMx="0.00" fuel="0.00" electricity="0.00" noise="56.89" route="!5" type="DEFAULT_VEHTYPE" waiting="0.00" lane="-26215163#2_0" pos="33.62" speed="7.53" angle="276.48" x="930.27" y="319.49"/>
        <vehicle id="6" eclass="HBEFA3/PC_G_EU4" CO2="2612.22" CO="75.99" HC="0.40" NOx="1.04" PMx="0.04" fuel="833.21" electricity="0.00" noise="60.07" route="!6" type="DEFAULT_VEHTYPE" waiting="0.00" lane="-144774339#4_0" pos="21.86" speed="5.81" angle="49.40" x="645.44" y="374.42"/>
        <vehicle id="8" eclass="HBEFA3/PC_G_EU4" CO2="4684.96" CO="143.81" HC="0.77" NOx="2.07" PMx="0.10" fuel="1494.31" electricity="0.00" noise="67.96" route="!8" type="DEFAULT_VEHTYPE" waiting="0.00" lane="-26215163#3_0" pos="10.64" speed="3.96" angle="264.84" x="1029.64" y="310.73"/>
        <vehicle id="9" eclass="HBEFA3/PC_G_EU4" CO2="4079.14" CO="151.88" HC="0.79" NOx="1.82" PMx="0.09" fuel="1301.09" electricity="0.00" noise="68.29" route="!9" type="DEFAULT_VEHTYPE" waiting="0.00" lane="27201452#0_0" pos="7.68" speed="2.58" angle="112.12" x="1395.25" y="715.70"/>
    </timestep>
    <timestep time="11.00">
        <vehicle id="1" eclass="HBEFA3/PC_G_EU4" CO2="5780.40" CO="131.11" HC="0.73" NOx="2.51" PMx="0.12" fuel="1843.69" electricity="0.00" noise="68.04" route="!1" type="DEFAULT_VEHTYPE" waiting="0.00" lane=":287062573_7_0" pos="4.84" speed="6.61" angle="95.33" x="1558.87" y="403.65"/>
        <vehicle id="10" eclass="HBEFA3/PC_G_EU4" CO2="3252.28" CO="147.41" HC="0.75" NOx="1.45" PMx="0.07" fuel="1037.37" electricity="0.00" noise="64.50" route="!10" type="DEFAULT_VEHTYPE" waiting="0.00" lane="27200967#3_0" pos="6.89" speed="1.79" angle="144.17" x="1535.34" y="1227.63"/>
        <vehicle id="2" eclass="HBEFA3/PC_G_EU4" CO2="2512.94" CO="61.06" HC="0.33" NOx="0.97" PMx="0.03" fuel="801.54" electricity="0.00" noise="60.38" route="!2" type="DEFAULT_VEHTYPE" waiting="0.00" lane="26215165#7_0" pos="9.12" speed="6.85" angle="352.09" x="1168.16" y="440.80"/>
        <vehicle id="3" eclass="HBEFA3/PC_G_EU4" CO2="6830.97" CO="87.18" HC="0.56" NOx="2.83" PMx="0.13" fuel="2178.75" electricity="0.00" noise="68.21" route="!3" type="DEFAULT_VEHTYPE" waiting="0.00" lane="314249082#1_0" pos="6.82" speed="13.77" angle="102.60" x="1265.88" y="590.99"/>
        <vehicle id="4" eclass="HBEFA3/PC_G_EU4" CO2="2263.44" CO="43.58" HC="0.25" NOx="0.82" PMx="0.02" fuel="721.96" electricity="0.00" noise="60.57" route="!4" type="DEFAULT_VEHTYPE" waiting="0.00" lane="-443385814#2_0" pos="49.52" speed="7.92" angle="4.97" x="1016.02" y="1114.15"/>
        <vehicle id="5" eclass="HBEFA3/PC_G_EU4" CO2="1803.54" CO="40.17" HC="0.22" NOx="0.62" PMx="0.01" fuel="575.28" electricity="0.00" noise="59.38" route="!5" type="DEFAULT_VEHTYPE" waiting="0.00" lane="-26215163#2_0" pos="41.00" speed="7.38" angle="276.48" x="922.93" y="320.33"/>
        <vehicle id="6" eclass="HBEFA3/PC_G_EU4" CO2="2724.36" CO="73.57" HC="0.40" NOx="1.08" PMx="0.04" fuel="868.97" electricity="0.00" noise="60.53" route="!6" type="DEFAULT_VEHTYPE" waiting="0.00" lane="-144774339#4_0" pos="28.04" speed="6.18" angle="49.40" x="650.13" y="378.44"/>
        <vehicle id="8" eclass="HBEFA3/PC_G_EU4" CO2="4485.23" CO="117.62" HC="0.64" NOx="1.93" PMx="0.09" fuel="1430.60" electricity="0.00" noise="65.35" route="!8" type="DEFAULT_VEHTYPE" waiting="0.00" lane="-26215163#3_0" pos="16.20" speed="5.57" angle="264.89" x="1024.09" y="310.24"/>
        <vehicle id="9" eclass="HBEFA3/PC_G_EU4" CO2="5537.29" CO="145.31" HC="0.79" NOx="2.44" PMx="0.12" fuel="1766.15" electricity="0.00" noise="69.12" route="!9" type="DEFAULT_VEHTYPE" waiting="0.00" lane="27201452#0_0" pos="12.79" speed="5.11" angle="112.12" x="1399.98" y="713.77"/>
    </timestep>
    <timestep time="12.00">
        <vehicle id="1" eclass="HBEFA3/PC_G_EU4" CO2="7046.59" CO="132.83" HC="0.77" NOx="3.06" PMx="0.14" fuel="2247.53" electricity="0.00" noise="69.21" route="!1" type="DEFAULT_VEHTYPE" waiting="0.00" lane=":287062573_7_0" pos="13.62" speed="8.78" angle="95.33" x="1567.61" y="402.83"/>
        <vehicle id="10" eclass="HBEFA3/PC_G_EU4" CO2="4181.05" CO="136.25" HC="0.72" NOx="1.84" PMx="0.09" fuel="1333.59" electricity="0.00" noise="66.11" route="!10" type="DEFAULT_VEHTYPE" waiting="0.00" lane="27200967#3_0" pos="10.65" speed="3.76" angle="144.17" x="1537.55" y="1224.59"/>
        <vehicle id="12" eclass="HBEFA3/PC_G_EU4" CO2="2624.72" CO="164.78" HC="0.81" NOx="1.20" PMx="0.07" fuel="837.22" electricity="0.00" noise="55.94" route="!12" type="DEFAULT_VEHTYPE" waiting="0.00" lane="816594925#3_0" pos="5.10" speed="0.00" angle="324.03" x="1559.86" y="1276.17"/>
        <vehicle id="2" eclass="HBEFA3/PC_G_EU4" CO2="2120.95" CO="52.87" HC="0.29" NOx="0.78" PMx="0.02" fuel="676.52" electricity="0.00" noise="59.58" route="!2" type="DEFAULT_VEHTYPE" waiting="0.00" lane=":315282995_4_0" pos="3.18" speed="6.85" angle="353.38" x="1167.32" y="447.60"/>
        <vehicle id="3" eclass="HBEFA3/PC_G_EU4" CO2="0.00" CO="0.00" HC="0.00" NOx="0.00" PMx="0.00" fuel="0.00" electricity="0.00" noise="61.96" route="!3" type="DEFAULT_VEHTYPE" waiting="0.00" lane="314249082#1_0" pos="19.64" speed="12.82" angle="102.60" x="1278.40" y="588.19"/>
        <vehicle id="4" eclass="HBEFA3/PC_G_EU4" CO2="4335.64" CO="75.92" HC="0.45" NOx="1.77" PMx="0.07" fuel="1382.88" electricity="0.00" noise="64.40" route="!4" type="DEFAULT_VEHTYPE" waiting="0.00" lane="-443385814#2_0" pos="58.41" speed="8.89" angle="4.97" x="1016.79" y="1123.01"/>
        <vehicle id="5" eclass="HBEFA3/PC_G_EU4" CO2="2101.43" CO="46.26" HC="0.26" NOx="0.76" PMx="0.02" fuel="670.29" electricity="0.00" noise="59.92" route="!5" type="DEFAULT_VEHTYPE" waiting="0.00" lane="-26215163#2_0" pos="48.39" speed="7.38" angle="276.48" x="915.60" y="321.16"/>
        <vehicle id="6" eclass="HBEFA3/PC_G_EU4" CO2="2799.34" CO="70.16" HC="0.38" NOx="1.11" PMx="0.04" fuel="892.89" electricity="0.00" noise="60.87" route="!6" type="DEFAULT_VEHTYPE" waiting="0.00" lane="-144774339#4_0" pos="34.62" speed="6.58" angle="49.40" x="655.13" y="382.72"/>
        <vehicle id="8" eclass="HBEFA3/PC_G_EU4" CO2="6673.62" CO="135.49" HC="0.78" NOx="2.90" PMx="0.14" fuel="2128.57" electricity="0.00" noise="69.11" route="!8" type="DEFAULT_VEHTYPE" waiting="0.00" lane="-26215163#3_0" pos="24.02" speed="7.82" angle="269.46" x="1016.28" y="310.10"/>
        <vehicle id="9" eclass="HBEFA3/PC_G_EU4" CO2="7085.90" CO="146.15" HC="0.83" NOx="3.10" PMx="0.15" fuel="2260.07" electricity="0.00" noise="70.16" route="!9" type="DEFAULT_VEHTYPE" waiting="0.00" lane="27201452#0_0" pos="20.42" speed="7.62" angle="112.12" x="1407.04" y="710.90"/>
    </timestep>
    <timestep time="13.00">
        <vehicle id="1" eclass="HBEFA3/PC_G_EU4" CO2="0.00" CO="0.00" HC="0.00" NOx="0.00" PMx="0.00" fuel="0.00" electricity="0.00" noise="59.59" route="!1" type="DEFAULT_VEHTYPE" waiting="0.00" lane="-26215863#2_0" pos="7.54" speed="8.44" angle="95.55" x="1576.01" y="402.02"/>
        <vehicle id="10" eclass="HBEFA3/PC_G_EU4" CO2="4615.15" CO="121.37" HC="0.66" NOx="1.99" PMx="0.09" fuel="1472.04" electricity="0.00" noise="65.79" route="!10" type="DEFAULT_VEHTYPE" waiting="0.00" lane=":4260030591_3_0" pos="1.98" speed="5.49" angle="144.17" x="1540.76" y="1220.14"/>
        <vehicle id="12" eclass="HBEFA3/PC_G_EU4" CO2="3655.34" CO="148.89" HC="0.76" NOx="1.63" PMx="0.08" fuel="1165.92" electricity="0.00" noise="66.54" route="!12" type="DEFAULT_VEHTYPE" waiting="0.00" lane="816594925#3_0" pos="7.32" speed="2.22" angle="324.03" x="1558.56" y="1277.96"/>
        <vehicle id="13" eclass="HBEFA3/PC_G_EU4" CO2="2624.72" CO="164.78" HC="0.81" NOx="1.20" PMx="0.07" fuel="837.22" electricity="0.00" noise="55.94" route="!13" type="DEFAULT_VEHTYPE" waiting="0.00" lane="-22718880#2_0" pos="5.10" speed="0.00" angle="94.63" x="1085.69" y="1197.25"/>
        <vehicle id="2" eclass="HBEFA3/PC_G_EU4" CO2="4039.97" CO="81.33" HC="0.46" NOx="1.66" PMx="0.07" fuel="1288.58" electricity="0.00" noise="63.76" route="!2" type="DEFAULT_VEHTYPE" waiting="0.00" lane="26215165#8_0" pos="1.45" speed="7.81" angle="354.80" x="1166.58" y="455.38"/>
        <vehicle id="3" eclass="HBEFA3/PC_G_EU4" CO2="3288.66" CO="18.49" HC="0.16" NOx="1.17" PMx="0.04" fuel="1048.94" electricity="0.00" noise="64.79" route="!3" type="DEFAULT_VEHTYPE" waiting="0.00" lane=":1284193414_1_0" pos="3.56" speed="13.12" angle="79.21" x="1290.92" y="587.31"/>
        <vehicle id="4" eclass="HBEFA3/PC_G_EU4" CO2="0.00" CO="0.00" HC="0.00" NOx="0.00" PMx="0.00" fuel="0.00" electricity="0.00" noise="58.61" route="!4" type="DEFAULT_VEHTYPE" waiting="0.00" lane="-443385814#2_0" pos="66.66" speed="8.25" angle="4.97" x="1017.50" y="1131.23"/>
        <vehicle id="5" eclass="HBEFA3/PC_G_EU4" CO2="3613.89" CO="69.31" HC="0.40" NOx="1.45" PMx="0.06" fuel="1152.68" electricity="0.00" noise="63.01" route="!5" type="DEFAULT_VEHTYPE" waiting="0.00" lane="-26215163#2_0" pos="56.50" speed="8.11" angle="276.48" x="907.54" y="322.07"/>
        <vehicle id="6" eclass="HBEFA3/PC_G_EU4" CO2="2144.56" CO="56.43" HC="0.30" NOx="0.80" PMx="0.02" fuel="684.05" electricity="0.00" noise="59.44" route="!6" type="DEFAULT_VEHTYPE" waiting="0.00" lane="-144774339#4_0" pos="41.22" speed="6.60" angle="49.40" x="660.14" y="387.01"/>
        <vehicle id="8" eclass="HBEFA3/PC_G_EU4" CO2="3186.12" CO="58.16" HC="0.34" NOx="1.25" PMx="0.04" fuel="1016.24" electricity="0.00" noise="62.33" route="!8" type="DEFAULT_VEHTYPE" waiting="0.00" lane="-26215163#3_0" pos="32.34" speed="8.32" angle="275.70" x="1007.98" y="310.69"/>
        <vehicle id="9" eclass="HBEFA3/PC_G_EU4" CO2="8970.82" CO="158.60" HC="0.94" NOx="3.93" PMx="0.19" fuel="2861.25" electricity="0.00" noise="71.62" route="!9" type="DEFAULT_VEHTYPE" waiting="0.00" lane="27201452#0_0" pos="30.62" speed="10.20" angle="110.68" x="1416.52" y="707.18"/>
    </timestep>
    <timestep time="14.00">
        <vehicle id="1" eclass="HBEFA3/PC_G_EU4" CO2="0.00" CO="0.00" HC="0.00" NOx="0.00" PMx="0.00" fuel="0.00" electricity="0.00" noise="58.55" route="!1" type="DEFAULT_VEHTYPE" waiting="0.00" lane="-26215863#2_0" pos="15.43" speed="7.90" angle="95.55" x="1583.86" y="401.26"/>
        <vehicle id="10" eclass="HBEFA3/PC_G_EU4" CO2="6222.85" CO="128.91" HC="0.73" NOx="2.70" PMx="0.13" fuel="1984.80" electricity="0.00" noise="68.33" route="!10" type="DEFAULT_VEHTYPE" waiting="0.00" lane="27200967#4_0" pos="0.15" speed="7.58" angle="144.18" x="1545.19" y="1214.00"/>
        <vehicle id="12" eclass="HBEFA3/PC_G_EU4" CO2="5286.80" CO="145.33" HC="0.79" NOx="2.33" PMx="0.11" fuel="1686.26" electricity="0.00" noise="68.89" route="!12" type="DEFAULT_VEHTYPE" waiting="0.00" lane="816594925#3_0" pos="12.05" speed="4.73" angle="319.69" x="1555.50" y="1281.54"/>
        <vehicle id="13" eclass="HBEFA3/PC_G_EU4" CO2="2933.80" CO="148.18" HC="0.74" NOx="1.31" PMx="0.07" fuel="935.80" electricity="0.00" noise="62.35" route="!13" type="DEFAULT_VEHTYPE" waiting="0.00" lane="-22718880#2_0" pos="6.44" speed="1.34" angle="94.63" x="1087.02" y="1197.14"/>
        <vehicle id="14" eclass="HBEFA3/PC_G_EU4" CO2="2624.72" CO="164.78" HC="0.81" NOx="1.20" PMx="0.07" fuel="837.22" electricity="0.00" noise="55.94" route="!14" type="DEFAULT_VEHTYPE" waiting="0.00" lane="27502934#1_0" pos="5.10" speed="0.00" angle="357.75" x="1645.17" y="757.22"/>
        <vehicle id="2" eclass="HBEFA3/PC_G_EU4" CO2="0.00" CO="0.00" HC="0.00" NOx="0.00" PMx="0.00" fuel="0.00" electricity="0.00" noise="58.14" route="!2" type="DEFAULT_VEHTYPE" waiting="0.00" lane=":287055675_3_0" pos="5.49" speed="7.30" angle="358.53" x="1166.33" y="462.68"/>
        <vehicle id="3" eclass="HBEFA3/PC_G_EU4" CO2="4690.43" CO="43.11" HC="0.31" NOx="1.82" PMx="0.07" fuel="1496.03" electricity="0.00" noise="66.25" route="!3" type="DEFAULT_VEHTYPE" waiting="0.00" lane="314249733#0_0" pos="10.81" speed="13.77" angle="101.37" x="1304.23" y="586.03"/>
        <vehicle id="4" eclass="HBEFA3/PC_G_EU4" CO2="3880.91" CO="65.24" HC="0.39" NOx="1.56" PMx="0.06" fuel="1237.84" electricity="0.00" noise="63.69" route="!4" type="DEFAULT_VEHTYPE" waiting="0.00" lane="-443385814#2_0" pos="75.68" speed="9.02" angle="4.97" x="1018.28" y="1140.21"/>
        <vehicle id="5" eclass="HBEFA3/PC_G_EU4" CO2="2156.62" CO="38.96" HC="0.22" NOx="0.76" PMx="0.02" fuel="687.89" electricity="0.00" noise="60.54" route="!5" type="DEFAULT_VEHTYPE" waiting="0.00" lane="-26215163#2_0" pos="64.63" speed="8.14" angle="276.48" x="899.45" y="322.99"/>
        <vehicle id="6" eclass="HBEFA3/PC_G_EU4" CO2="1943.45" CO="53.51" HC="0.29" NOx="0.71" PMx="0.02" fuel="619.90" electricity="0.00" noise="58.94" route="!6" type="DEFAULT_VEHTYPE" waiting="0.00" lane="-144774339#4_0" pos="47.72" speed="6.50" angle="49.40" x="665.07" y="391.24"/>
        <vehicle id="8" eclass="HBEFA3/PC_G_EU4" CO2="1945.51" CO="33.33" HC="0.19" NOx="0.66" PMx="0.01" fuel="620.55" electricity="0.00" noise="60.30" route="!8" type="DEFAULT_VEHTYPE" waiting="0.00" lane="-26215163#3_0" pos="40.60" speed="8.26" angle="276.45" x="999.78" y="311.62"/>
        <vehicle id="9" eclass="HBEFA3/PC_G_EU4" CO2="7612.08" CO="115.96" HC="0.71" NOx="3.24" PMx="0.15" fuel="2427.88" electricity="0.00" noise="69.04" route="!9" type="DEFAULT_VEHTYPE" waiting="0.00" lane="27201452#0_0" pos="42.56" speed="11.94" angle="96.85" x="1428.38" y="705.76"/>
    </timestep>
    <timestep time="15.00">
        <vehicle id="1" eclass="HBEFA3/PC_G_EU4" CO2="4187.67" CO="73.68" HC="0.43" NOx="1.71" PMx="0.07" fuel="1335.68" electricity="0.00" noise="64.14" route="!1" type="DEFAULT_VEHTYPE" waiting="0.00" lane=":287062467_6_0" pos="1.71" speed="8.81" angle="95.61" x="1592.63" y="400.40"/>
        <vehicle id="10" eclass="HBEFA3/PC_G_EU4" CO2="2141.22" CO="44.60" HC="0.25" NOx="0.77" PMx="0.02" fuel="682.98" electricity="0.00" noise="60.14" route="!10" type="DEFAULT_VEHTYPE" waiting="0.00" lane="27200967#4_0" pos="7.76" speed="7.60" angle="145.57" x="1549.54" y="1207.76"/>
        <vehicle id="12" eclass="HBEFA3/PC_G_EU4" CO2="5830.77" CO="129.62" HC="0.73" NOx="2.53" PMx="0.12" fuel="1859.75" electricity="0.00" noise="67.99" route="!12" type="DEFAULT_VEHTYPE" waiting="0.00" lane="816594925#3_0" pos="18.87" speed="6.82" angle="284.69" x="1549.24" y="1283.85"/>
        <vehicle id="13" eclass="HBEFA3/PC_G_EU4" CO2="4099.28" CO="139.86" HC="0.73" NOx="1.81" PMx="0.09" fuel="1307.51" electricity="0.00" noise="66.34" route="!13" type="DEFAULT_VEHTYPE" waiting="0.00" lane="-22718880#2_0" pos="9.84" speed="3.40" angle="94.63" x="1090.41" y="1196.86"/>
        <vehicle id="14" eclass="HBEFA3/PC_G_EU4" CO2="3453.49" CO="147.92" HC="0.75" NOx="1.54" PMx="0.08" fuel="1101.55" electricity="0.00" noise="65.58" route="!14" type="DEFAULT_VEHTYPE" waiting="0.00" lane="27502934#1_0" pos="7.11" speed="2.01" angle="357.75" x="1645.09" y="759.23"/>
        <vehicle id="15" eclass="HBEFA3/PC_G_EU4" CO2="2624.72" CO="164.78" HC="0.81" NOx="1.20" PMx="0.07" fuel="837.22" electricity="0.00" noise="55.94" route="!15" type="DEFAULT_VEHTYPE" waiting="0.00" lane="27201413#1_0" pos="5.10" speed="0.00" angle="195.44" x="1714.98" y="663.36"/>